<?xml version="1.0" encoding="UTF-8"?>

<!-- generated on 2022-03-09 14:34:08 by Eclipse SUMO sumo Version v1_12_0+0082-e54b4ef3fd7
<configuration xmlns:xsi="http://www.w3.org/2001/XMLSchema-instance" xsi:noNamespaceSchemaLocation="http://sumo.dlr.de/xsd/sumoConfiguration.xsd">

    <input>
        <net-file value="F:\98_CodeProjects\01_Fahrsimulator\sumo_scenarios\dbug\circles.net.xml"/>
        <route-files value="F:\98_CodeProjects\01_Fahrsimulator\sumo_scenarios\dbug\circles.rou.xml"/>
        <additional-files value="F:\98_CodeProjects\01_Fahrsimulator\sumo_scenarios\dbug\circles.add.xml"/>
    </input>

    <output>
        <fcd-output value="F:\98_CodeProjects\01_Fahrsimulator\sumo_scenarios\dbug\fcd.xml"/>
        <tripinfo-output value="F:\98_CodeProjects\01_Fahrsimulator\sumo_scenarios\dbug\TripInfoOut.xml"/>
        <tripinfo-output.write-unfinished value="true"/>
    </output>

    <time>
        <begin value="0"/>
        <end value="60"/>
    </time>

</configuration>
-->

<fcd-export xmlns:xsi="http://www.w3.org/2001/XMLSchema-instance" xsi:noNamespaceSchemaLocation="http://sumo.dlr.de/xsd/fcd_file.xsd">
    <timestep time="0.00">
        <vehicle id="carflow.0" x="-1702.05" y="5.10" angle="0.00" type="car" speed="0.00" pos="5.10" lane="edge1_1" friction="1.00" slope="0.00"/>
        <vehicle id="carflow2.0" x="-1698.75" y="5.10" angle="0.00" type="truck" speed="0.00" pos="5.10" lane="edge1_0" slope="0.00"/>
    </timestep>
    <timestep time="1.00">
        <vehicle id="carflow.0" x="-1702.05" y="6.25" angle="0.00" type="car" speed="1.15" pos="6.25" lane="edge1_1" friction="1.16" slope="0.00"/>
        <vehicle id="carflow2.0" x="-1698.75" y="5.36" angle="0.00" type="truck" speed="0.26" pos="5.36" lane="edge1_0" slope="0.00"/>
    </timestep>
    <timestep time="2.00">
        <vehicle id="carflow.0" x="-1702.05" y="7.95" angle="0.00" type="car" speed="1.70" pos="7.95" lane="edge1_1" friction="1.06" slope="0.00"/>
        <vehicle id="carflow2.0" x="-1698.75" y="6.61" angle="0.00" type="truck" speed="1.25" pos="6.61" lane="edge1_0" slope="0.00"/>
    </timestep>
    <timestep time="3.00">
        <vehicle id="carflow.0" x="-1702.05" y="13.13" angle="0.00" type="car" speed="5.17" pos="13.13" lane="edge1_1" friction="0.90" slope="0.00"/>
        <vehicle id="carflow.1" x="-1702.05" y="5.10" angle="0.00" type="car" speed="0.00" pos="5.10" lane="edge1_1" friction="1.00" slope="0.00"/>
        <vehicle id="carflow2.0" x="-1698.75" y="8.15" angle="0.00" type="truck" speed="1.54" pos="8.15" lane="edge1_0" slope="0.00"/>
    </timestep>
    <timestep time="4.00">
        <vehicle id="carflow.0" x="-1702.05" y="21.25" angle="0.00" type="car" speed="8.13" pos="21.25" lane="edge1_1" friction="0.89" slope="0.00"/>
        <vehicle id="carflow.1" x="-1702.05" y="7.56" angle="0.00" type="car" speed="2.46" pos="7.56" lane="edge1_1" friction="0.89" slope="0.00"/>
        <vehicle id="carflow2.0" x="-1698.75" y="10.57" angle="0.00" type="truck" speed="2.42" pos="10.57" lane="edge1_0" slope="0.00"/>
    </timestep>
    <timestep time="5.00">
        <vehicle id="carflow.0" x="-1702.05" y="32.39" angle="0.00" type="car" speed="11.14" pos="32.39" lane="edge1_1" friction="1.02" slope="0.00"/>
        <vehicle id="carflow.1" x="-1702.05" y="12.03" angle="0.00" type="car" speed="4.46" pos="12.03" lane="edge1_1" friction="0.79" slope="0.00"/>
        <vehicle id="carflow2.0" x="-1698.75" y="13.82" angle="0.00" type="truck" speed="3.26" pos="13.82" lane="edge1_0" slope="0.00"/>
        <vehicle id="carflow2.1" x="-1698.75" y="5.10" angle="0.00" type="truck" speed="0.00" pos="5.10" lane="edge1_0" slope="0.00"/>
    </timestep>
    <timestep time="6.00">
        <vehicle id="carflow.0" x="-1698.75" y="45.31" angle="0.00" type="car" speed="12.92" pos="45.31" lane="edge1_0" friction="0.87" slope="0.00"/>
        <vehicle id="carflow.1" x="-1702.05" y="18.47" angle="0.00" type="car" speed="6.44" pos="18.47" lane="edge1_1" friction="0.78" slope="0.00"/>
        <vehicle id="carflow.2" x="-1702.05" y="5.10" angle="0.00" type="car" speed="0.00" pos="5.10" lane="edge1_1" friction="1.00" slope="0.00"/>
        <vehicle id="carflow2.0" x="-1698.75" y="17.86" angle="0.00" type="truck" speed="4.04" pos="17.86" lane="edge1_0" slope="0.00"/>
        <vehicle id="carflow2.1" x="-1698.75" y="5.34" angle="0.00" type="truck" speed="0.24" pos="5.34" lane="edge1_0" slope="0.00"/>
    </timestep>
    <timestep time="7.00">
        <vehicle id="carflow.0" x="-1698.75" y="57.64" angle="0.00" type="car" speed="12.32" pos="57.64" lane="edge1_0" friction="1.08" slope="0.00"/>
        <vehicle id="carflow.1" x="-1702.05" y="26.40" angle="0.00" type="car" speed="7.93" pos="26.40" lane="edge1_1" friction="0.89" slope="0.00"/>
        <vehicle id="carflow.2" x="-1702.05" y="6.91" angle="0.00" type="car" speed="1.81" pos="6.91" lane="edge1_1" friction="0.98" slope="0.00"/>
        <vehicle id="carflow2.0" x="-1698.75" y="21.92" angle="0.00" type="truck" speed="4.06" pos="21.92" lane="edge1_0" slope="0.00"/>
        <vehicle id="carflow2.1" x="-1698.75" y="6.46" angle="0.00" type="truck" speed="1.12" pos="6.46" lane="edge1_0" slope="0.00"/>
    </timestep>
    <timestep time="8.00">
        <vehicle id="carflow.0" x="-1698.75" y="69.96" angle="0.00" type="car" speed="12.32" pos="69.96" lane="edge1_0" friction="0.99" slope="0.00"/>
        <vehicle id="carflow.1" x="-1702.05" y="35.63" angle="0.00" type="car" speed="9.23" pos="35.63" lane="edge1_1" friction="0.91" slope="0.00"/>
        <vehicle id="carflow.2" x="-1702.05" y="11.48" angle="0.00" type="car" speed="4.57" pos="11.48" lane="edge1_1" friction="0.88" slope="0.00"/>
        <vehicle id="carflow2.0" x="-1698.75" y="27.06" angle="0.00" type="truck" speed="5.14" pos="27.06" lane="edge1_0" slope="0.00"/>
        <vehicle id="carflow2.1" x="-1698.75" y="7.70" angle="0.00" type="truck" speed="1.24" pos="7.70" lane="edge1_0" slope="0.00"/>
    </timestep>
    <timestep time="9.00">
        <vehicle id="carflow.0" x="-1698.75" y="81.44" angle="0.00" type="car" speed="11.48" pos="81.44" lane="edge1_0" friction="0.95" slope="0.00"/>
        <vehicle id="carflow.1" x="-1702.05" y="46.67" angle="0.00" type="car" speed="11.04" pos="46.67" lane="edge1_1" friction="0.90" slope="0.00"/>
        <vehicle id="carflow.2" x="-1702.05" y="18.70" angle="0.00" type="car" speed="7.23" pos="18.70" lane="edge1_1" friction="0.95" slope="0.00"/>
        <vehicle id="carflow.3" x="-1702.05" y="5.10" angle="0.00" type="car" speed="0.00" pos="5.10" lane="edge1_1" friction="1.00" slope="0.00"/>
        <vehicle id="carflow2.0" x="-1698.75" y="32.82" angle="0.00" type="truck" speed="5.76" pos="32.82" lane="edge1_0" slope="0.00"/>
        <vehicle id="carflow2.1" x="-1698.75" y="9.46" angle="0.00" type="truck" speed="1.76" pos="9.46" lane="edge1_0" slope="0.00"/>
    </timestep>
    <timestep time="10.00">
        <vehicle id="carflow.0" x="-1698.75" y="93.65" angle="0.00" type="car" speed="12.21" pos="93.65" lane="edge1_0" friction="0.42" slope="0.00"/>
        <vehicle id="carflow.1" x="-1702.05" y="59.18" angle="0.00" type="car" speed="12.50" pos="59.18" lane="edge1_1" friction="0.86" slope="0.00"/>
        <vehicle id="carflow.2" x="-1702.05" y="27.31" angle="0.00" type="car" speed="8.61" pos="27.31" lane="edge1_1" friction="0.96" slope="0.00"/>
        <vehicle id="carflow.3" x="-1702.05" y="8.00" angle="0.00" type="car" speed="2.90" pos="8.00" lane="edge1_1" friction="1.12" slope="0.00"/>
        <vehicle id="carflow2.0" x="-1698.75" y="39.62" angle="0.00" type="truck" speed="6.80" pos="39.62" lane="edge1_0" slope="0.00"/>
        <vehicle id="carflow2.1" x="-1698.75" y="11.47" angle="0.00" type="truck" speed="2.01" pos="11.47" lane="edge1_0" slope="0.00"/>
    </timestep>
    <timestep time="11.00">
        <vehicle id="carflow.0" x="-1698.75" y="107.73" angle="0.00" type="car" speed="14.08" pos="107.73" lane="edge1_0" friction="0.55" slope="0.00"/>
        <vehicle id="carflow.1" x="-1702.05" y="70.45" angle="0.00" type="car" speed="11.27" pos="70.45" lane="edge1_1" friction="0.78" slope="0.00"/>
        <vehicle id="carflow.2" x="-1702.05" y="37.56" angle="0.00" type="car" speed="10.25" pos="37.56" lane="edge1_1" friction="0.89" slope="0.00"/>
        <vehicle id="carflow.3" x="-1702.05" y="12.39" angle="0.00" type="car" speed="4.39" pos="12.39" lane="edge1_1" friction="0.97" slope="0.00"/>
        <vehicle id="carflow2.0" x="-1698.75" y="46.61" angle="0.00" type="truck" speed="6.99" pos="46.61" lane="edge1_0" slope="0.00"/>
        <vehicle id="carflow2.1" x="-1698.75" y="13.58" angle="0.00" type="truck" speed="2.11" pos="13.58" lane="edge1_0" slope="0.00"/>
        <vehicle id="carflow2.2" x="-1698.75" y="5.10" angle="0.00" type="truck" speed="0.00" pos="5.10" lane="edge1_0" slope="0.00"/>
    </timestep>
    <timestep time="12.00">
        <vehicle id="carflow.0" x="-1698.75" y="120.46" angle="0.00" type="car" speed="12.72" pos="120.46" lane="edge1_0" friction="0.50" slope="0.00"/>
        <vehicle id="carflow.1" x="-1702.05" y="82.24" angle="0.00" type="car" speed="11.79" pos="82.24" lane="edge1_1" friction="1.04" slope="0.00"/>
        <vehicle id="carflow.2" x="-1702.05" y="47.79" angle="0.00" type="car" speed="10.23" pos="47.79" lane="edge1_1" friction="1.03" slope="0.00"/>
        <vehicle id="carflow.3" x="-1702.05" y="18.28" angle="0.00" type="car" speed="5.89" pos="18.28" lane="edge1_1" friction="1.04" slope="0.00"/>
        <vehicle id="carflow.4" x="-1702.05" y="5.10" angle="0.00" type="car" speed="0.00" pos="5.10" lane="edge1_1" friction="1.00" slope="0.00"/>
        <vehicle id="carflow2.0" x="-1698.75" y="54.67" angle="0.00" type="truck" speed="8.06" pos="54.67" lane="edge1_0" slope="0.00"/>
        <vehicle id="carflow2.1" x="-1698.75" y="16.57" angle="0.00" type="truck" speed="2.99" pos="16.57" lane="edge1_0" slope="0.00"/>
        <vehicle id="carflow2.2" x="-1698.75" y="5.27" angle="0.00" type="truck" speed="0.17" pos="5.27" lane="edge1_0" slope="0.00"/>
    </timestep>
    <timestep time="13.00">
        <vehicle id="carflow.0" x="-1698.75" y="134.02" angle="0.00" type="car" speed="13.57" pos="134.02" lane="edge1_0" friction="0.51" slope="0.00"/>
        <vehicle id="carflow.1" x="-1702.05" y="94.75" angle="0.00" type="car" speed="12.51" pos="94.75" lane="edge1_1" friction="0.95" slope="0.00"/>
        <vehicle id="carflow.2" x="-1702.05" y="59.24" angle="0.00" type="car" speed="11.45" pos="59.24" lane="edge1_1" friction="0.91" slope="0.00"/>
        <vehicle id="carflow.3" x="-1702.05" y="24.42" angle="0.00" type="car" speed="6.14" pos="24.42" lane="edge1_1" friction="0.83" slope="0.00"/>
        <vehicle id="carflow.4" x="-1702.05" y="7.76" angle="0.00" type="car" speed="2.66" pos="7.76" lane="edge1_1" friction="1.10" slope="0.00"/>
        <vehicle id="carflow2.0" x="-1698.75" y="63.71" angle="0.00" type="truck" speed="9.04" pos="63.71" lane="edge1_0" slope="0.00"/>
        <vehicle id="carflow2.1" x="-1698.75" y="20.34" angle="0.00" type="truck" speed="3.77" pos="20.34" lane="edge1_0" slope="0.00"/>
        <vehicle id="carflow2.2" x="-1698.75" y="5.58" angle="0.00" type="truck" speed="0.31" pos="5.58" lane="edge1_0" slope="0.00"/>
    </timestep>
    <timestep time="14.00">
        <vehicle id="carflow.0" x="-1698.75" y="147.69" angle="0.00" type="car" speed="13.67" pos="147.69" lane="edge1_0" friction="0.58" slope="0.00"/>
        <vehicle id="carflow.1" x="-1698.75" y="106.87" angle="0.00" type="car" speed="12.13" pos="106.87" lane="edge1_0" friction="1.03" slope="0.00"/>
        <vehicle id="carflow.2" x="-1702.05" y="70.43" angle="0.00" type="car" speed="11.19" pos="70.43" lane="edge1_1" friction="0.92" slope="0.00"/>
        <vehicle id="carflow.3" x="-1705.35" y="33.45" angle="0.00" type="car" speed="9.03" pos="33.45" lane="edge1_2" friction="1.04" slope="0.00"/>
        <vehicle id="carflow.4" x="-1702.05" y="11.97" angle="0.00" type="car" speed="4.21" pos="11.97" lane="edge1_1" friction="1.23" slope="0.00"/>
        <vehicle id="carflow2.0" x="-1698.75" y="73.64" angle="0.00" type="truck" speed="9.92" pos="73.64" lane="edge1_0" slope="0.00"/>
        <vehicle id="carflow2.1" x="-1698.75" y="24.51" angle="0.00" type="truck" speed="4.17" pos="24.51" lane="edge1_0" slope="0.00"/>
        <vehicle id="carflow2.2" x="-1698.75" y="6.78" angle="0.00" type="truck" speed="1.20" pos="6.78" lane="edge1_0" slope="0.00"/>
    </timestep>
    <timestep time="15.00">
        <vehicle id="carflow.0" x="-1698.75" y="159.17" angle="0.00" type="car" speed="11.48" pos="159.17" lane="edge1_0" friction="0.43" slope="0.00"/>
        <vehicle id="carflow.1" x="-1698.75" y="119.12" angle="0.00" type="car" speed="12.25" pos="119.12" lane="edge1_0" friction="0.41" slope="0.00"/>
        <vehicle id="carflow.2" x="-1702.05" y="81.08" angle="0.00" type="car" speed="10.65" pos="81.08" lane="edge1_1" friction="0.94" slope="0.00"/>
        <vehicle id="carflow.3" x="-1705.35" y="44.04" angle="0.00" type="car" speed="10.59" pos="44.04" lane="edge1_2" friction="1.11" slope="0.00"/>
        <vehicle id="carflow.4" x="-1702.05" y="18.65" angle="0.00" type="car" speed="6.68" pos="18.65" lane="edge1_1" friction="1.05" slope="0.00"/>
        <vehicle id="carflow.5" x="-1702.05" y="5.10" angle="0.00" type="car" speed="0.00" pos="5.10" lane="edge1_1" friction="1.00" slope="0.00"/>
        <vehicle id="carflow2.0" x="-1698.75" y="83.87" angle="0.00" type="truck" speed="10.23" pos="83.87" lane="edge1_0" slope="0.00"/>
        <vehicle id="carflow2.1" x="-1698.75" y="29.65" angle="0.00" type="truck" speed="5.14" pos="29.65" lane="edge1_0" slope="0.00"/>
        <vehicle id="carflow2.2" x="-1698.75" y="8.08" angle="0.00" type="truck" speed="1.30" pos="8.08" lane="edge1_0" slope="0.00"/>
    </timestep>
    <timestep time="16.00">
        <vehicle id="carflow.0" x="-1698.75" y="171.54" angle="0.00" type="car" speed="12.38" pos="171.54" lane="edge1_0" friction="0.39" slope="0.00"/>
        <vehicle id="carflow.1" x="-1698.75" y="129.17" angle="0.00" type="car" speed="10.05" pos="129.17" lane="edge1_0" friction="0.62" slope="0.00"/>
        <vehicle id="carflow.2" x="-1702.05" y="94.39" angle="0.00" type="car" speed="13.31" pos="94.39" lane="edge1_1" friction="1.02" slope="0.00"/>
        <vehicle id="carflow.3" x="-1705.35" y="56.36" angle="0.00" type="car" speed="12.32" pos="56.36" lane="edge1_2" friction="0.96" slope="0.00"/>
        <vehicle id="carflow.4" x="-1702.05" y="28.14" angle="0.00" type="car" speed="9.49" pos="28.14" lane="edge1_1" friction="0.97" slope="0.00"/>
        <vehicle id="carflow.5" x="-1702.05" y="5.55" angle="0.00" type="car" speed="0.45" pos="5.55" lane="edge1_1" friction="1.22" slope="0.00"/>
        <vehicle id="carflow2.0" x="-1698.75" y="94.25" angle="0.00" type="truck" speed="10.38" pos="94.25" lane="edge1_0" slope="0.00"/>
        <vehicle id="carflow2.1" x="-1698.75" y="34.98" angle="0.00" type="truck" speed="5.33" pos="34.98" lane="edge1_0" slope="0.00"/>
        <vehicle id="carflow2.2" x="-1698.75" y="9.81" angle="0.00" type="truck" speed="1.73" pos="9.81" lane="edge1_0" slope="0.00"/>
    </timestep>
    <timestep time="17.00">
        <vehicle id="carflow.0" x="-1698.75" y="183.56" angle="0.00" type="car" speed="12.01" pos="183.56" lane="edge1_0" friction="0.44" slope="0.00"/>
        <vehicle id="carflow.1" x="-1698.75" y="139.76" angle="0.00" type="car" speed="10.59" pos="139.76" lane="edge1_0" friction="0.59" slope="0.00"/>
        <vehicle id="carflow.2" x="-1702.05" y="106.07" angle="0.00" type="car" speed="11.68" pos="106.07" lane="edge1_1" friction="0.98" slope="0.00"/>
        <vehicle id="carflow.3" x="-1705.35" y="70.93" angle="0.00" type="car" speed="14.57" pos="70.93" lane="edge1_2" friction="1.00" slope="0.00"/>
        <vehicle id="carflow.4" x="-1702.05" y="38.55" angle="0.00" type="car" speed="10.41" pos="38.55" lane="edge1_1" friction="1.18" slope="0.00"/>
        <vehicle id="carflow.5" x="-1702.05" y="7.12" angle="0.00" type="car" speed="1.57" pos="7.12" lane="edge1_1" friction="1.21" slope="0.00"/>
        <vehicle id="carflow2.0" x="-1698.75" y="104.77" angle="0.00" type="truck" speed="10.52" pos="104.77" lane="edge1_0" slope="0.00"/>
        <vehicle id="carflow2.1" x="-1698.75" y="40.65" angle="0.00" type="truck" speed="5.67" pos="40.65" lane="edge1_0" slope="0.00"/>
        <vehicle id="carflow2.2" x="-1698.75" y="12.73" angle="0.00" type="truck" speed="2.92" pos="12.73" lane="edge1_0" slope="0.00"/>
        <vehicle id="carflow2.3" x="-1698.75" y="5.10" angle="0.00" type="truck" speed="0.00" pos="5.10" lane="edge1_0" slope="0.00"/>
    </timestep>
    <timestep time="18.00">
        <vehicle id="carflow.0" x="-1698.75" y="196.24" angle="0.00" type="car" speed="12.68" pos="196.24" lane="edge1_0" friction="0.62" slope="0.00"/>
        <vehicle id="carflow.1" x="-1698.75" y="149.59" angle="0.00" type="car" speed="9.83" pos="149.59" lane="edge1_0" friction="0.66" slope="0.00"/>
        <vehicle id="carflow.2" x="-1702.05" y="119.89" angle="0.00" type="car" speed="13.82" pos="119.89" lane="edge1_1" friction="0.88" slope="0.00"/>
        <vehicle id="carflow.3" x="-1705.35" y="83.78" angle="0.00" type="car" speed="12.85" pos="83.78" lane="edge1_2" friction="1.13" slope="0.00"/>
        <vehicle id="carflow.4" x="-1702.05" y="49.97" angle="0.00" type="car" speed="11.42" pos="49.97" lane="edge1_1" friction="1.03" slope="0.00"/>
        <vehicle id="carflow.5" x="-1702.05" y="10.25" angle="0.00" type="car" speed="3.13" pos="10.25" lane="edge1_1" friction="0.91" slope="0.00"/>
        <vehicle id="carflow2.0" x="-1698.75" y="115.93" angle="0.00" type="truck" speed="11.16" pos="115.93" lane="edge1_0" slope="0.00"/>
        <vehicle id="carflow2.1" x="-1698.75" y="46.62" angle="0.00" type="truck" speed="5.98" pos="46.62" lane="edge1_0" slope="0.00"/>
        <vehicle id="carflow2.2" x="-1698.75" y="16.22" angle="0.00" type="truck" speed="3.49" pos="16.22" lane="edge1_0" slope="0.00"/>
        <vehicle id="carflow2.3" x="-1698.75" y="5.23" angle="0.00" type="truck" speed="0.13" pos="5.23" lane="edge1_0" slope="0.00"/>
    </timestep>
    <timestep time="19.00">
        <vehicle id="carflow.0" x="-1698.75" y="210.06" angle="0.00" type="car" speed="13.82" pos="210.06" lane="edge1_0" friction="0.57" slope="0.00"/>
        <vehicle id="carflow.1" x="-1698.75" y="161.68" angle="0.00" type="car" speed="12.09" pos="161.68" lane="edge1_0" friction="0.50" slope="0.00"/>
        <vehicle id="carflow.2" x="-1702.05" y="132.56" angle="0.00" type="car" speed="12.67" pos="132.56" lane="edge1_1" friction="0.82" slope="0.00"/>
        <vehicle id="carflow.3" x="-1705.35" y="96.70" angle="0.00" type="car" speed="12.92" pos="96.70" lane="edge1_2" friction="0.97" slope="0.00"/>
        <vehicle id="carflow.4" x="-1702.05" y="62.95" angle="0.00" type="car" speed="12.98" pos="62.95" lane="edge1_1" friction="1.01" slope="0.00"/>
        <vehicle id="carflow.5" x="-1702.05" y="15.58" angle="0.00" type="car" speed="5.33" pos="15.58" lane="edge1_1" friction="1.03" slope="0.00"/>
        <vehicle id="carflow.6" x="-1702.05" y="5.10" angle="0.00" type="car" speed="0.00" pos="5.10" lane="edge1_1" friction="1.00" slope="0.00"/>
        <vehicle id="carflow2.0" x="-1698.75" y="127.51" angle="0.00" type="truck" speed="11.59" pos="127.51" lane="edge1_0" slope="0.00"/>
        <vehicle id="carflow2.1" x="-1698.75" y="53.22" angle="0.00" type="truck" speed="6.60" pos="53.22" lane="edge1_0" slope="0.00"/>
        <vehicle id="carflow2.2" x="-1698.75" y="19.89" angle="0.00" type="truck" speed="3.67" pos="19.89" lane="edge1_0" slope="0.00"/>
        <vehicle id="carflow2.3" x="-1698.75" y="5.40" angle="0.00" type="truck" speed="0.16" pos="5.40" lane="edge1_0" slope="0.00"/>
    </timestep>
    <timestep time="20.00">
        <vehicle id="carflow.0" x="-1698.75" y="222.14" angle="0.00" type="car" speed="12.08" pos="222.14" lane="edge1_0" friction="0.72" slope="0.00"/>
        <vehicle id="carflow.1" x="-1698.75" y="173.68" angle="0.00" type="car" speed="12.00" pos="173.68" lane="edge1_0" friction="0.67" slope="0.00"/>
        <vehicle id="carflow.2" x="-1702.05" y="146.03" angle="0.00" type="car" speed="13.47" pos="146.03" lane="edge1_1" friction="0.97" slope="0.00"/>
        <vehicle id="carflow.3" x="-1705.35" y="109.85" angle="0.00" type="car" speed="13.14" pos="109.85" lane="edge1_2" friction="0.39" slope="0.00"/>
        <vehicle id="carflow.4" x="-1702.05" y="74.17" angle="0.00" type="car" speed="11.22" pos="74.17" lane="edge1_1" friction="0.94" slope="0.00"/>
        <vehicle id="carflow.5" x="-1702.05" y="20.95" angle="0.00" type="car" speed="5.36" pos="20.95" lane="edge1_1" friction="0.98" slope="0.00"/>
        <vehicle id="carflow.6" x="-1702.05" y="7.23" angle="0.00" type="car" speed="2.13" pos="7.23" lane="edge1_1" friction="0.97" slope="0.00"/>
        <vehicle id="carflow2.0" x="-1698.75" y="139.59" angle="0.00" type="truck" speed="12.08" pos="139.59" lane="edge1_0" slope="0.00"/>
        <vehicle id="carflow2.1" x="-1698.75" y="60.78" angle="0.00" type="truck" speed="7.56" pos="60.78" lane="edge1_0" slope="0.00"/>
        <vehicle id="carflow2.2" x="-1698.75" y="23.84" angle="0.00" type="truck" speed="3.95" pos="23.84" lane="edge1_0" slope="0.00"/>
        <vehicle id="carflow2.3" x="-1698.75" y="6.31" angle="0.00" type="truck" speed="0.92" pos="6.31" lane="edge1_0" slope="0.00"/>
    </timestep>
    <timestep time="21.00">
        <vehicle id="carflow.0" x="-1698.75" y="235.24" angle="0.00" type="car" speed="13.09" pos="235.24" lane="edge1_0" friction="0.88" slope="0.00"/>
        <vehicle id="carflow.1" x="-1698.75" y="184.34" angle="0.00" type="car" speed="10.66" pos="184.34" lane="edge1_0" friction="0.89" slope="0.00"/>
        <vehicle id="carflow.2" x="-1702.05" y="158.57" angle="0.00" type="car" speed="12.55" pos="158.57" lane="edge1_1" friction="0.91" slope="0.00"/>
        <vehicle id="carflow.3" x="-1705.35" y="124.61" angle="0.00" type="car" speed="14.77" pos="124.61" lane="edge1_2" friction="0.49" slope="0.00"/>
        <vehicle id="carflow.4" x="-1702.05" y="86.01" angle="0.00" type="car" speed="11.84" pos="86.01" lane="edge1_1" friction="1.08" slope="0.00"/>
        <vehicle id="carflow.5" x="-1702.05" y="27.45" angle="0.00" type="car" speed="6.51" pos="27.45" lane="edge1_1" friction="1.13" slope="0.00"/>
        <vehicle id="carflow.6" x="-1705.35" y="12.74" angle="0.00" type="car" speed="5.51" pos="12.74" lane="edge1_2" friction="1.12" slope="0.00"/>
        <vehicle id="carflow.7" x="-1702.05" y="5.10" angle="0.00" type="car" speed="0.00" pos="5.10" lane="edge1_1" friction="1.00" slope="0.00"/>
        <vehicle id="carflow2.0" x="-1698.75" y="151.30" angle="0.00" type="truck" speed="11.71" pos="151.30" lane="edge1_0" slope="0.00"/>
        <vehicle id="carflow2.1" x="-1698.75" y="68.62" angle="0.00" type="truck" speed="7.84" pos="68.62" lane="edge1_0" slope="0.00"/>
        <vehicle id="carflow2.2" x="-1698.75" y="28.37" angle="0.00" type="truck" speed="4.53" pos="28.37" lane="edge1_0" slope="0.00"/>
        <vehicle id="carflow2.3" x="-1698.75" y="8.41" angle="0.00" type="truck" speed="2.09" pos="8.41" lane="edge1_0" slope="0.00"/>
    </timestep>
    <timestep time="22.00">
        <vehicle id="carflow.0" x="-1698.75" y="249.26" angle="0.00" type="car" speed="14.03" pos="249.26" lane="edge1_0" friction="0.60" slope="0.00"/>
        <vehicle id="carflow.1" x="-1698.75" y="197.14" angle="0.00" type="car" speed="12.80" pos="197.14" lane="edge1_0" friction="0.60" slope="0.00"/>
        <vehicle id="carflow.2" x="-1702.05" y="170.17" angle="0.00" type="car" speed="11.59" pos="170.17" lane="edge1_1" friction="0.99" slope="0.00"/>
        <vehicle id="carflow.3" x="-1705.35" y="137.18" angle="0.00" type="car" speed="12.57" pos="137.18" lane="edge1_2" friction="0.43" slope="0.00"/>
        <vehicle id="carflow.4" x="-1702.05" y="98.48" angle="0.00" type="car" speed="12.48" pos="98.48" lane="edge1_1" friction="1.10" slope="0.00"/>
        <vehicle id="carflow.5" x="-1702.05" y="34.86" angle="0.00" type="car" speed="7.41" pos="34.86" lane="edge1_1" friction="0.94" slope="0.00"/>
        <vehicle id="carflow.6" x="-1705.35" y="20.47" angle="0.00" type="car" speed="7.73" pos="20.47" lane="edge1_2" friction="0.48" slope="0.00"/>
        <vehicle id="carflow.7" x="-1702.05" y="7.73" angle="0.00" type="car" speed="2.63" pos="7.73" lane="edge1_1" friction="1.06" slope="0.00"/>
        <vehicle id="carflow2.0" x="-1698.75" y="163.75" angle="0.00" type="truck" speed="12.45" pos="163.75" lane="edge1_0" slope="0.00"/>
        <vehicle id="carflow2.1" x="-1698.75" y="77.49" angle="0.00" type="truck" speed="8.87" pos="77.49" lane="edge1_0" slope="0.00"/>
        <vehicle id="carflow2.2" x="-1698.75" y="33.54" angle="0.00" type="truck" speed="5.17" pos="33.54" lane="edge1_0" slope="0.00"/>
        <vehicle id="carflow2.3" x="-1698.75" y="10.82" angle="0.00" type="truck" speed="2.42" pos="10.82" lane="edge1_0" slope="0.00"/>
    </timestep>
    <timestep time="23.00">
        <vehicle id="carflow.0" x="-1698.75" y="261.38" angle="0.00" type="car" speed="12.12" pos="261.38" lane="edge1_0" friction="0.75" slope="0.00"/>
        <vehicle id="carflow.1" x="-1698.75" y="208.25" angle="0.00" type="car" speed="11.12" pos="208.25" lane="edge1_0" friction="0.64" slope="0.00"/>
        <vehicle id="carflow.2" x="-1702.05" y="181.44" angle="0.00" type="car" speed="11.27" pos="181.44" lane="edge1_1" friction="1.01" slope="0.00"/>
        <vehicle id="carflow.3" x="-1705.35" y="150.06" angle="0.00" type="car" speed="12.87" pos="150.06" lane="edge1_2" friction="0.45" slope="0.00"/>
        <vehicle id="carflow.4" x="-1702.05" y="111.40" angle="0.00" type="car" speed="12.91" pos="111.40" lane="edge1_1" friction="0.93" slope="0.00"/>
        <vehicle id="carflow.5" x="-1702.05" y="45.38" angle="0.00" type="car" speed="10.52" pos="45.38" lane="edge1_1" friction="1.10" slope="0.00"/>
        <vehicle id="carflow.6" x="-1705.35" y="30.65" angle="0.00" type="car" speed="10.18" pos="30.65" lane="edge1_2" friction="0.61" slope="0.00"/>
        <vehicle id="carflow.7" x="-1702.05" y="11.81" angle="0.00" type="car" speed="4.08" pos="11.81" lane="edge1_1" friction="1.04" slope="0.00"/>
        <vehicle id="carflow2.0" x="-1698.75" y="176.16" angle="0.00" type="truck" speed="12.42" pos="176.16" lane="edge1_0" slope="0.00"/>
        <vehicle id="carflow2.1" x="-1698.75" y="87.38" angle="0.00" type="truck" speed="9.89" pos="87.38" lane="edge1_0" slope="0.00"/>
        <vehicle id="carflow2.2" x="-1698.75" y="39.78" angle="0.00" type="truck" speed="6.24" pos="39.78" lane="edge1_0" slope="0.00"/>
        <vehicle id="carflow2.3" x="-1698.75" y="14.30" angle="0.00" type="truck" speed="3.48" pos="14.30" lane="edge1_0" slope="0.00"/>
        <vehicle id="carflow2.4" x="-1698.75" y="5.10" angle="0.00" type="truck" speed="0.00" pos="5.10" lane="edge1_0" slope="0.00"/>
    </timestep>
    <timestep time="24.00">
        <vehicle id="carflow.0" x="-1698.75" y="273.10" angle="0.00" type="car" speed="11.72" pos="273.10" lane="edge1_0" friction="0.62" slope="0.00"/>
        <vehicle id="carflow.1" x="-1698.75" y="219.99" angle="0.00" type="car" speed="11.74" pos="219.99" lane="edge1_0" friction="0.58" slope="0.00"/>
        <vehicle id="carflow.2" x="-1702.05" y="194.80" angle="0.00" type="car" speed="13.35" pos="194.80" lane="edge1_1" friction="1.17" slope="0.00"/>
        <vehicle id="carflow.3" x="-1705.35" y="163.93" angle="0.00" type="car" speed="13.87" pos="163.93" lane="edge1_2" friction="0.55" slope="0.00"/>
        <vehicle id="carflow.4" x="-1702.05" y="122.62" angle="0.00" type="car" speed="11.23" pos="122.62" lane="edge1_1" friction="0.98" slope="0.00"/>
        <vehicle id="carflow.5" x="-1702.05" y="55.44" angle="0.00" type="car" speed="10.06" pos="55.44" lane="edge1_1" friction="1.29" slope="0.00"/>
        <vehicle id="carflow.6" x="-1705.35" y="42.78" angle="0.00" type="car" speed="12.12" pos="42.78" lane="edge1_2" friction="0.56" slope="0.00"/>
        <vehicle id="carflow.7" x="-1702.05" y="17.91" angle="0.00" type="car" speed="6.10" pos="17.91" lane="edge1_1" friction="1.13" slope="0.00"/>
        <vehicle id="carflow.8" x="-1702.05" y="5.10" angle="0.00" type="car" speed="0.00" pos="5.10" lane="edge1_1" friction="1.00" slope="0.00"/>
        <vehicle id="carflow2.0" x="-1698.75" y="188.51" angle="0.00" type="truck" speed="12.34" pos="188.51" lane="edge1_0" slope="0.00"/>
        <vehicle id="carflow2.1" x="-1698.75" y="97.76" angle="0.00" type="truck" speed="10.39" pos="97.76" lane="edge1_0" slope="0.00"/>
        <vehicle id="carflow2.2" x="-1698.75" y="47.19" angle="0.00" type="truck" speed="7.41" pos="47.19" lane="edge1_0" slope="0.00"/>
        <vehicle id="carflow2.3" x="-1698.75" y="18.38" angle="0.00" type="truck" speed="4.08" pos="18.38" lane="edge1_0" slope="0.00"/>
        <vehicle id="carflow2.4" x="-1698.75" y="5.37" angle="0.00" type="truck" speed="0.27" pos="5.37" lane="edge1_0" slope="0.00"/>
    </timestep>
    <timestep time="25.00">
        <vehicle id="carflow.0" x="-1698.75" y="284.65" angle="0.00" type="car" speed="11.55" pos="284.65" lane="edge1_0" friction="0.67" slope="0.00"/>
        <vehicle id="carflow.1" x="-1698.75" y="230.76" angle="0.00" type="car" speed="10.77" pos="230.76" lane="edge1_0" friction="0.84" slope="0.00"/>
        <vehicle id="carflow.2" x="-1702.05" y="207.26" angle="0.00" type="car" speed="12.47" pos="207.26" lane="edge1_1" friction="1.08" slope="0.00"/>
        <vehicle id="carflow.3" x="-1705.35" y="178.69" angle="0.00" type="car" speed="14.76" pos="178.69" lane="edge1_2" friction="0.50" slope="0.00"/>
        <vehicle id="carflow.4" x="-1702.05" y="133.93" angle="0.00" type="car" speed="11.30" pos="133.93" lane="edge1_1" friction="1.02" slope="0.00"/>